256
Lattice="6.7163700461439815 0.0 0.0 0.0 6.7163700461439815 0.0 0.0 0.0 6.7163700461439815" Properties=species:S:1:pos:R:3:REF_forces:R:3 REF_energy=-3476.806042491693 REF_stress="-3.0651535104838548 -3.108087478728196 -3.0980171260046885 0.04039893506877588 -0.011780880360624165 0.02074577131543161" pbc="T T T"
H       10.47206074       4.99007623       6.53233882       0.05354579       1.11464701      -0.29284531
H        8.17011491       4.87302266       2.09796565       0.46745124      -0.16008331      -0.18352869
H        4.83864425       3.82414864       2.19326153       1.31165342       0.71499602       0.57318785
H        3.46174876       2.56597440      10.23349125      -1.17694613       0.72494619      -0.22225310
H       -2.24798383       3.32162581       5.06084393       0.57627035       0.20330407      -1.55200529
H        3.94683053       4.62083304       2.31109487      -0.96602491      -0.57911270       1.74090912
H        6.25946077       1.36932211      -1.46850879       1.43218545      -0.13875935       0.64594570
H        1.68625216       2.11133189       4.36731492       0.61331892       2.38118503       0.93623456
H        5.41256613       4.17903492       5.50770956      -1.47184472      -0.13064546       0.06825585
H        2.10735244       0.99020988       3.54024768      -0.76683177      -0.48123569       0.49799749
H       -1.55748726       4.06951913      -0.25638802       0.37986867       0.53658280       0.66151888
H        5.51274952       5.04548091       5.91549128      -0.65845772       0.67564683       0.79226641
H        5.62582162       3.99631674       2.73878123      -0.70545440      -1.02293628      -0.15412015
H        4.56591731       6.76843132       0.17677620       0.54933470      -0.70107967       0.03489707
H        4.16155557      -0.49951457       1.39563752      -0.02057654      -0.12684975       0.12641086
H        6.13566262       1.22460851       2.35189212       0.53476375       0.77491044      -0.30132198
H       -0.19914104       4.35811618       5.32419079      -1.83161893       2.40609645      -1.16506712
H        2.99379240      12.41103984       5.20986608       0.02101825      -0.17962189      -0.68748959
H        4.99768923       5.86250785       2.49400715      -1.74576568       1.13386446       1.04136363
H        1.36672892       5.35139746       3.41794661      -0.44100796       1.35502639       0.76798980
H        0.90323826      11.23392546       4.39551830       0.42931689      -1.39558194       0.40508964
H       -1.98057156       1.97324064       0.80069071      -1.22128814       0.37646195      -0.64059318
H       -0.35721014       7.35995815       3.74306661       0.20418236      -0.00419681      -0.84699749
H        6.62703964      -0.15880051       0.58098616      -0.47779427      -1.58128938      -1.33426499
H        7.12885121       3.09645883       0.88409862       0.70367623      -0.00250554       2.49900634
H        1.72900051      -1.86804348       4.35929356      -0.00434851       0.39936714       0.13752265
H        3.45881371       2.11991138      -1.35050888       0.48576495      -0.15866149       0.11560348
H        7.52355750       6.66248192      -0.25267790      -1.27104722       0.16724152       0.24406737
H        5.52958007       1.26022878       8.21470758       1.94224038       0.69130485       0.13868170
H        2.64237714       4.08558066      -0.47863607      -1.10478015       0.07999808      -0.83928983
H        9.24651396       6.85249206       4.77345986      -2.67565347       0.31344293       0.15459375
H        6.40789053       4.43407833       0.22552496      -0.39135558       0.21587111       0.13813560
H        3.70445151       1.84370402       1.91723686       0.28623320       0.03422627      -1.27773543
H        3.63219143       3.68220018       6.21957627       0.52479044       1.11279967       1.27886594
H       10.81754477       7.11791092       5.38637363      -0.08113193      -0.43873433      -0.02813610
H       -1.48115504       2.05564311       6.34589373       1.09037143       0.20637165      -0.37141334
H        4.55405620      -1.26697940       4.74867780       0.00588294       0.86379733       0.16955603
H       -2.98468970       0.12314733       6.70358745      -3.02556673      -2.26243091      -0.56800554
H        2.06306873      -0.65393803      -3.44405986       1.68422709       0.67604355       1.21914667
H        9.72279392       4.98618006       4.02784204      -0.23826336       0.03214959       0.36909703
H        4.42395474      -1.82234462       1.01210055      -0.66156233      -0.95071116      -1.48029953
H        7.41106838       0.31614357       2.78089690       0.17546236       0.53186020      -0.06164760
H        4.72746683       7.52723740       0.95692624       0.37606240       0.14586048       0.99925744
H        1.60625616       6.22618384       2.74655073      -0.01454550      -0.01118301      -2.08828393
H       -0.78111316       5.72679150       4.16157101      -1.07035847      -1.30721698       0.21412661
H        0.46004918       4.05998659       5.38859943       3.42839406       0.94212033      -0.14869821
H        5.33033895      -0.05827458       6.85035357       2.26140067      -0.75319773      -0.20672852
H        2.04656392       5.97813016       1.64011674       0.12739482       0.63825142       0.16646530
H        6.93408521       4.21066902       2.03191753       0.69317507      -1.24202100      -0.06636069
H       -1.08159617       1.10774233       3.83420036       0.11909556      -1.19375574      -0.28435732
H        5.43349367       4.80386017       9.83511178      -0.85634910       0.63209851      -0.75870709
H        5.16475357      -0.78723984       5.73891925      -1.52695966       0.49072821      -0.38948896
H        1.27243108       0.59177936       1.66262935       0.08854854      -0.37996945      -0.28444628
H        1.58816629       3.63431716       3.60707623      -0.46772943      -0.16944187       0.83808887
H        2.95174993       1.54846516       0.50091628       0.78789914       0.16326839       0.60583701
H        1.52283280       4.45715242       6.45254566       0.19638754      -1.26026915      -1.05233067
H       10.18435093       1.40988898       2.63093849      -0.80628561      -0.11378571       0.35362773
H        0.66908546       2.92211664       2.79572329       1.02322835      -1.45307129      -0.02055186
H        6.77342158       4.63871403      -0.47587430      -0.19583321       0.44936558       0.55549892
H        3.68723880       4.46611071       7.71096236       0.34860225      -0.48068316      -0.35197374
H        4.17142594       6.02005105      -3.65338561       0.29507368       0.65301392       0.11705641
H        1.69374427       0.88350960       5.51857328      -0.54996719      -2.88467747      -0.20087978
H        5.96882731       5.48125445       0.34512672      -1.21049285       0.26834244      -0.35857890
H        5.38581416       5.43650999       1.94505741       1.73500098      -0.69091224       0.85834119
H        2.28719266       2.96315097       6.69949114      -1.29407530       0.38352375      -0.88444997
H        4.51833452       0.23148775       4.33892751      -0.34437587      -0.42817712       1.52362596
H        2.07104308       2.75924937       2.71167597      -0.77048814      -1.14520534       1.47734508
H        4.55446389       2.99282390       2.69083575       0.23029628      -0.11303264      -0.23976720
H        3.69851290       7.86594193      11.08982306      -0.23082439       0.53827099      -0.68376663
H        1.32552399       0.34465456       3.45249696       0.42672342       0.78068951       1.39606017
H        0.31335426       3.68228480       2.75625588       0.13644639      -0.73362238      -1.30677295
H        7.14447483       5.57618160       6.48731362      -0.61930548       0.25407539      -1.83303663
H        4.88623846       7.45174003       5.90231577      -1.03675698       0.63309507       0.10433202
H       -0.93936360       0.59418920       4.68922449       0.55030041      -0.00862322      -0.98288286
H        6.00267983      -1.47239354       5.31045715       1.16086208       0.36444770      -1.89763868
H        0.79276338       5.65380807       5.39312694      -3.75064584       0.25739571      -0.96701581
H        4.19596420       5.36468311       3.79195439      -0.47886154       0.46981537      -0.42584565
H        3.51220885       2.79482262       4.47040986       0.26400550      -0.10507662      -0.39762470
H       -0.85504831       3.67008989      -1.91411240       0.80613083      -0.78576898      -0.28304581
H        2.36982013       3.93927931       3.67752827       0.32162906      -0.69991290      -0.17467124
H        3.78655712       1.89047750       6.12243607       0.71168444       0.90243484      -0.22662243
H        4.20290557       0.84869395       3.08606793      -3.09153249       2.51632247      -1.29130622
H        1.58231231       3.33359706       2.57692074      -1.86794578       0.67325056      -0.93695524
H        2.97081972       5.31177424       0.05749884       0.00794137      -0.17849575      -0.38213818
H        3.97526697       2.57337114       1.17087419       0.59886778      -0.75840164       0.51057661
H       -0.12965482       3.26781358       3.64890444      -0.57962641      -0.54392099       1.01627429
H        4.65570779       7.20124696       2.01829002       0.31556692      -1.39230815      -0.70782316
H        0.13787029       3.10169894       6.18215064      -0.43371836      -0.24297748      -0.49129796
H       -0.29389626       6.05906779       5.67310420       1.30249335       0.59424802       1.87024615
H        5.39144650       2.17793679       1.79906636       0.62511128      -1.04056607       0.06468201
H        3.31178095       6.00936128       7.15457155       0.04571010      -0.31817530       0.32418243
H       -4.03375782       0.10692192       8.14637724      -1.77297360      -0.58077209      -1.11948814
H        2.42953201       3.44057406       8.38063819      -0.74827535      -0.19433066      -1.70569143
H        7.16759929       6.16984894       3.15677049      -0.38466120      -1.73552086       1.45480679
H        1.44469791       5.56270521       5.53897426       3.61968311      -0.66759336       0.75156225
H        9.39388656       0.65127767      -0.54016003      -0.81050171      -0.54543280       0.59532351
H        9.05242698       0.98626536       0.83203400      -0.75611747      -0.52916825       0.46004106
H        3.63126054       1.75672300       3.37407663      -0.42132668      -0.30145413      -0.44591979
H        5.43409612       4.31508305       7.36890099      -0.03458468      -0.47667070       0.73078234
H        3.16267955       2.70945286       7.50211213      -1.50336284      -2.50578326       0.72250878
H       -0.12297203       7.23307920       0.89830039       0.61383057       0.67119368       0.64261998
H        0.02170462       1.86362075       4.23841166      -0.99328786      -0.00874535       1.15258929
H        1.06060617       1.96720195       3.81837995      -0.10998871       0.67162614      -1.19692951
H        0.49571512      -0.41101028       1.85530521      -1.21301665       1.60720944       0.25756026
H        0.70906331       5.33599347       2.35515157       1.45401926      -0.04470788       3.23637559
H        2.70085792       4.08502320       1.91770969       1.01018977       0.51139885       0.20286492
H        2.24642362       1.51208863       6.35114660      -0.15227564      -0.17707805       0.14437027
H        1.99859359       2.94410872       7.54087768      -0.50793557       0.73761993       1.49969439
H        4.52509723       4.46588034      -1.49915290      -0.22414106       0.01075441       0.57792794
H        2.68812771       2.46853196       8.98163778       1.47421065       0.40873907      -0.88494003
H        0.77280099       3.94706627       7.76275095      -0.30389874       0.82349992       0.65691557
H        0.39255772       1.01040869       6.63459220      -0.64175763      -1.06483214      -1.02271927
H       -1.36852286      -4.25347446       7.56514728       1.21880909      -0.01157691      -0.95463312
H        1.89791453       1.59040889       5.22486172       1.40228866       1.72579515      -1.02224542
H        3.60177971       0.47428587       1.46946990      -0.11341599       0.68431890      -3.35952886
H        0.29867093       4.74053622       0.98913392       0.39083879      -0.21930867      -1.05010795
H        2.62219848       6.35548269       6.05974346      -1.06252329       0.14715092      -0.35094915
H        6.95347604       1.02920916       3.02647022      -1.71356441      -0.05781743      -0.22451361
H        1.14038993       2.73320261       1.34715204       0.49908892       1.71019652       0.91902206
H       -0.45844800       2.79976855       5.10055581      -0.94337529      -0.46732294      -1.28241741
H        1.47604254      -0.03302842       5.75418959       0.96667797       0.69511728      -1.58887311
H        3.23993057       3.37388521       2.71017822       0.02998986       0.42193551       0.04735535
H        2.27675609       4.61829627       7.41043032       0.31406822       0.18431879       0.81470777
H        4.64424093       3.39013480       0.97327456       0.65684410       0.79145009       0.29723007
H        4.59650433       2.94194672       5.62128337       1.20394528      -2.37330434       1.07160752
H        7.38587259       3.69317943      -0.02046747       0.99384836       1.22250736      -0.59265265
H        5.24726216      -1.96799045       1.41598677       0.61161171      -2.06052964      -0.93060899
H        1.78666458       4.10592320       5.68538844      -0.43640851      -0.58503396       1.77505157
H        3.14722988       7.21521903       4.95234836       0.04396432       0.40312506       0.65646666
H        3.38622721       3.38669333       7.43845706       0.61378300       3.84678685       0.35545938
H        4.53124271       4.66870531       3.38612042       0.30769908       0.36807219      -0.59741099
H        0.34564522       5.11786524       4.60033266      -0.72239591       0.62841515       0.82688529
H        3.97739068       3.60182873       3.27639911      -0.75910510       1.21248314      -0.11212452
H        2.25767824      -1.51417742      -1.44826699      -0.68457216       0.35851694       0.64762078
H       -0.27379820       6.42896784       4.15138900       0.47895564       0.27136297      -0.87269515
H        3.22961624       4.18518040       4.37619934      -0.91643913       0.14401726       0.64620307
H        2.86543652       4.07490768       0.30795161       0.31170563      -0.19810556       1.11477197
H        6.55920094       2.14333204       0.72271097      -0.83492050      -1.64153727       1.81849010
H        3.27606397       5.72074408      -4.03824771       1.29169780      -0.44385494       0.90543583
H        3.37938189       4.30041517       3.19676110      -0.31715175      -0.69678233      -1.47671593
H        0.21955478       2.51101703       1.86473029       0.80447195      -0.30598596      -0.44124218
H        6.53611879       4.72240806      -2.89632309      -0.41846967       0.08414244      -0.50492609
H        8.74240740       5.81228552      -0.06656124      -0.17708499      -0.07088120      -0.11225668
H        2.88028037       2.31704020       6.55781468      -0.74757601      -0.24987420      -1.19598772
H        1.09193132       6.12205861       1.32685987       1.39718888       0.10837560      -0.93659503
H       -1.19305635       0.64000156      -1.21153443       1.01179826      -0.46385761       1.15932584
H        5.58120142       4.16015252      10.84077670       1.60139926       0.85954267       0.53711296
H        4.75008757       2.25570900       2.47568489       0.04581166      -0.73728697       0.93447670
H        1.25677186       8.30543499      -0.28744049       1.00154573      -1.68472563       0.50487416
H        6.29273702       3.34545750       0.45737674      -1.50551074       0.23688036       0.46258980
H        2.57379225       7.41676722       2.48379961      -0.13860380       0.56498989       0.21884202
H        5.18962025       8.24785689      -1.82638184      -0.71716655       1.03679478      -0.53002675
H        8.13875483       4.65893635       3.23626276       0.26945135      -2.38906854      -0.76237194
H        4.34070332       5.16116837       2.03328432      -0.17918044       1.16452153       1.10525066
H        1.78119678       3.22108107       5.14796130       1.09154179      -0.15558877      -0.28259123
H       -0.82912245      -0.09133189       1.39897152       4.15198116       2.98142243       0.16187717
H        2.99943146       4.66503884      -1.20957056       0.64679211      -0.16403818      -0.03130138
H        8.75031928       4.25963606       4.87386355      -0.17587348      -0.96302649      -1.47239056
H        3.72054393       1.41422238       0.98293941      -1.00666788      -0.07140313      -0.46726946
H        2.35395002       4.97203807       2.38813634      -0.49904495      -0.75153860       0.62040539
H        5.48986349       7.78033776       7.19766109       0.48914852       0.45943299       0.19194622
H        4.38823709       4.47353566       6.47625176      -0.75109148       0.05944519      -0.09060079
H       -0.49345372       6.50095188       4.97402142       0.21837665       0.30049845       0.58941409
H        7.37586385       0.23559750      -2.34644179       1.01354455       0.00656994       0.38570944
H        2.55301987       2.98665155       3.80597482       0.11870886      -0.21096878       0.41656062
H        8.39454510       1.13875718       4.40657143      -0.26719573      -2.42382549      -0.08298364
H        2.51493200       1.66966071       2.15699515       0.10934619      -1.10430886      -1.24684902
H        6.15569419       5.45672626       1.36675511       0.13161246      -0.26695687      -0.75989211
H        6.02431662       3.40279918       7.96488548      -0.47188022       0.77530999      -0.56741110
H        4.96038517       8.50329589      -3.21499604      -0.89284334      -0.76287819      -0.81028162
H        2.01093089       8.60263705       1.32023082       1.54257011       0.02126945      -0.17268660
H        5.71936790       2.97787527       1.90697626       0.11776758       0.84562503       0.90018615
H        2.78713641       5.30129401       3.28627218      -0.51626620      -0.67785798      -0.63303619
H        3.65947870       7.06052558       8.90373729       1.35081415       0.27049702       2.04922167
H        1.17196359       3.09142625      -0.01260595       2.15744043       0.30330044      -0.74940741
H       -0.06730810       2.30191628      -0.06651087      -0.23611880      -0.95836225      -0.19693056
H        1.49382077       1.61675251       2.33840901       0.23891873       0.36777111       0.48315811
H        2.83817612       1.40660804       3.94427898       0.08792684       0.34583317       0.50249563
H        1.16926025       2.96451775       4.20001014       0.04239441       1.12004710      -0.48788071
H        2.11183092       2.13671104       3.46199324       1.00620045       0.30775796      -0.08099129
H        5.19745020       7.54779688       2.66175051       1.61841894       0.19863752       0.39222204
H        8.51050256       0.51832847       2.31289889       0.16374559      -0.47746851      -0.48296579
H        2.82820567       3.07488786       4.96490730      -1.09158884       0.65762802       0.61224600
H        5.17454671      -0.69373118       3.49537964       0.24802867       0.04419186      -0.48975093
H        6.02028210       6.09214860       3.07651927       0.65018057       0.05909835      -0.16857206
H        3.45310547      10.07790184       5.58783048      -2.30893626      -0.29316104      -1.39679139
H        6.78883363       2.13656462       3.43720715      -0.85228702       0.64322445      -0.57852984
H        5.08236453      -1.32583966       6.77308375       0.97871741       0.55955124       0.68594564
H        5.65440784       6.85014536       2.46396080      -0.13231463       0.24851332       0.93422113
H        1.86194300      -1.02436195       0.80825469      -0.32892945       0.87869790      -0.14765434
H        0.61994513       1.22979758      -2.26021233      -0.31101581      -1.10334444       0.21543762
H        5.47188444       3.05638561      -0.28211374       0.27771411      -1.15055761      -0.03803484
H        6.99889885       3.27963439       4.39378212       0.18732492      -0.04813105      -0.91640724
H        6.20938485      10.95864362       1.90421986      -1.67483228      -0.40610317      -0.29438334
H        6.16224534       1.06546681       6.84311668       0.56958702       0.82866064      -1.49819133
H        2.90330006       5.07929649       8.47651370      -0.53371808      -1.09918260      -1.46367118
H        0.96213143       2.06757474      -0.95443245      -0.59929278       1.49218189      -2.15158629
H        0.43805643       1.18294821       5.66664775      -1.13581953      -1.15513212       0.58445083
H        1.59659735       4.45015261       0.98972295       0.01918840      -0.08043953       0.08955564
H        4.58131526       1.49869820       6.50142673       0.67519046       0.71606483      -0.78286055
H        3.14966793       6.39920358       2.35613955      -1.38089040      -1.12053304       0.02463914
H       10.09014108       5.62714273       8.10768961      -0.34070691       0.76616689      -0.90715719
H       -0.34585074       2.40500920       2.40272094      -0.28983789      -0.62222573       0.80333244
H        1.50699695       0.23747204       6.67673607       0.86482063       0.38623574       2.38535201
H        0.92051881       1.68407874       1.65203360      -1.79733249       0.01122698      -0.11910224
H        6.72704975       1.07496040       1.41262725       0.64165787       2.52160994       2.41572908
H        4.64223610       3.26891439       0.11753782      -0.43636763      -0.04212213       0.52581965
H        0.59954953       0.20496481      -1.37619497      -0.52417003       0.63007994      -0.45147774
H        0.74854884      -3.34731794       5.35148947       1.81964838      -1.11797530      -0.12009649
H        3.99378669       2.75756087       6.57875230      -0.33718064      -0.86475507      -0.06815866
H       10.05347574       0.12872528       3.87382023       0.88226042      -1.11745028       0.36249006
H        0.25419647       5.28113348       1.81978837      -2.10745819       0.23782936      -1.68831103
H        8.55762528       2.63750240       5.78424669       0.57657605      -0.20186657      -0.19260339
H        4.23883479       3.72193959       1.70066616      -0.66025209      -0.25782997      -0.73155007
H        4.56548679       0.46039642       3.44889094       2.54767604      -3.29992015       2.64077929
H        1.47721589       6.33333009       4.46347789       0.86366106       0.11868752      -0.83775540
H       -1.36632526       8.98450970       5.18244180      -0.29897970       0.56547994      -0.63134081
H        4.39559353       6.25462565       5.79798167       0.53590069      -0.79771638      -0.60061767
H        1.38223903       1.64250643       7.44488530       0.32702992      -0.84832957      -0.08655850
H        0.87936560       8.43268132       9.50916298       0.01110742       0.49624451       0.91602955
H        4.39302653       1.33087559       4.86584017      -0.37627349       1.06369855      -0.48098501
H        4.30014518       2.28085845       4.10770371      -0.19704060      -0.66809139       1.49804066
H        6.15880521       1.99155349       6.02333939      -1.03014205      -1.24210199      -0.93342255
H       -0.21378407       6.65201513       9.11890561       0.76008520      -0.60905012      -0.80939279
H       -1.29962499       2.67579780      -2.50765482       0.52898494       0.08063314       1.06455087
H       -0.94413223       1.98334542       3.54639786       1.47125619       0.96680755      -0.74258267
H        1.04058199       7.18343246       0.92955569       1.10487528       0.00335863      -1.71884520
H        4.00751629       7.53368445       0.10874475      -1.03130033       2.62112912       0.76388709
H        3.56759808       2.90718077       1.98803143      -0.18539196      -0.36636575       0.96507926
H        3.90728589       5.14032076      -1.41243046      -0.12454989      -0.63647325       0.92222796
H        1.09435526      -1.66300546       6.69886853       0.30584018       0.56650427       0.46149039
H        0.40278474       5.85310694       0.51338455       0.72430959      -0.48754338       1.37523757
H       -1.87240375       3.70309077      -2.71933801      -0.78306418       0.57696172       0.11644321
H        3.40502096       6.13429785      -0.98151621       1.34955868       1.57756591       1.07796560
H        4.65397094       2.96875175       3.60108389       0.85366924      -0.24667267       0.19427538
H        3.95644837       3.95691785       4.51048039       0.36307602       0.37133080      -0.39183201
H        7.16582819      -2.58028564       3.38468849       1.27038130       2.00639918       1.52660407
H        5.03784775       6.39620404       4.40779650      -0.20012156      -0.22245339       1.47813286
H        3.47223637       5.93546576       4.20864404       1.07581873       0.30452146       0.11802212
H        3.30810038       7.76160446      -0.83931454       0.46848534      -0.20199126      -0.74306501
H        4.50050255       5.94083953       7.38990510       0.33451698      -1.44501706       0.09013131
H        5.93131101       6.71610609       6.27758422       1.58605029      -0.92486026      -0.04711881
H        7.07152162       2.41961529       5.16492282       0.74131795      -1.11204223      -0.15785288
H        2.40180348      -0.77374195       4.37971670      -2.30557325       0.47409240      -0.39381998
H       -2.18748613       1.38657109       8.67857569       0.04446774       0.71035338       0.06586549
H        2.93234768       0.28769370       3.27071169      -0.80804116      -0.45711155      -0.07106889
H        5.16717280       4.86850926      -2.28458133       1.37723738       1.43264105      -0.26072246
H        1.42227531       4.00955874       1.97881926      -0.04132766      -0.49465197       0.09383807
H        5.33372803       6.33655663       1.33688473      -4.93303191      -1.19339142      -0.68297884
H        6.35613217       4.90978270       2.95520484       0.14306286       1.64547671       0.70022041
H        0.89716062      -4.55137100       6.97972362      -0.00078419       0.21896183       0.91751745
H        0.58502605       5.70511106       3.95885216       0.45792504       1.42768062      -0.93668451
H        5.80423864       3.31166274       3.28399264       0.19235220      -0.54452571      -1.15985369
H       -0.60360219       3.51696068      -0.83256459      -1.17617994      -1.38452748       0.98248434
H        2.71670989       0.12816916       7.20320882      -0.86013994       0.24571442       0.72999918
H        9.54630585       1.82061717       4.89320602      -1.11037409      -0.21454673      -0.57543783
